! TOUCHSTONE file generated by CST MICROWAVE STUDIO
! Date and time: Sun May 16 16:35:34 2021
! Project name: waveguide_with_ports.cst
! Parameters = {ln=0.4}
! Header version: 2015
! Port assignment regex: !\s*Touchstone port\s*([0-9]+)\s*=\s*CST MWS port\s*([0-9]+)\s*\(\"(.*)\"\)(\s*mode\s*([0-9]+))?.*
! Touchstone port assignment:
! Touchstone port 1 = CST MWS port 1 ("")
! Touchstone port 2 = CST MWS port 2 ("")
! S-Parameters are not renormalized. Unphysical impedance of 0 will be written to the file.
# GHz S DB R 0
0                       -58.9077         -155.33         -54.5988      -0.0259903             -200               0             -200               0
0.0004                  -58.8404         -156.15         -54.5974      -0.0249364             -200               0             -200               0
0.0008                  -58.7748        -156.986         -54.5959      -0.0238834             -200               0             -200               0
0.0012                  -58.7107        -157.838         -54.5944      -0.0228313             -200               0             -200               0
0.0016                  -58.6485        -158.706         -54.5929      -0.0217802             -200               0             -200               0
0.002                   -58.5881         -159.59         -54.5914      -0.0207301             -200               0             -200               0
0.0024                  -58.5297         -160.49         -54.5899      -0.0196811             -200               0             -200               0
0.0028                  -58.4734        -161.405         -54.5884      -0.0186331             -200               0             -200               0
0.0032                  -58.4193        -162.336         -54.5868      -0.0175863             -200               0             -200               0
0.0036                  -58.3676        -163.282         -54.5853      -0.0165407             -200               0             -200               0
0.004                   -58.3183        -164.242         -54.5837      -0.0154962             -200               0             -200               0
0.0044                  -58.2716        -165.217         -54.5822       -0.014453             -200               0             -200               0
0.0048                  -58.2277        -166.205         -54.5806      -0.0134111             -200               0             -200               0
0.0052                  -58.1865        -167.207          -54.579      -0.0123705             -200               0             -200               0
0.0056                  -58.1482        -168.221         -54.5774      -0.0113313             -200               0             -200               0
0.006                    -58.113        -169.247         -54.5758      -0.0102934             -200               0             -200               0
0.0064                   -58.081        -170.285         -54.5741     -0.00925704             -200               0             -200               0
0.0068                  -58.0521        -171.333         -54.5725      -0.0082221             -200               0             -200               0
0.0072                  -58.0266        -172.391         -54.5709     -0.00718867             -200               0             -200               0
0.0076                  -58.0045        -173.458         -54.5692     -0.00615679             -200               0             -200               0
0.008                   -57.9859        -174.534         -54.5675     -0.00512648             -200               0             -200               0
0.0084                  -57.9708        -175.616         -54.5659      -0.0040978             -200               0             -200               0
0.0088                  -57.9595        -176.705         -54.5642     -0.00307077             -200               0             -200               0
0.0092                  -57.9518        -177.799         -54.5625     -0.00204543             -200               0             -200               0
0.0096                  -57.9478        -178.898         -54.5608     -0.00102183             -200               0             -200               0
0.01                    -57.9476            -180         -54.5591     8.15685e-09             -200               0             -200               0
0.0104                  -57.9513         178.896         -54.5573      0.00102004             -200               0             -200               0
0.0108                  -57.9587          177.79         -54.5556      0.00203824             -200               0             -200               0
0.0112                    -57.97         176.685         -54.5538      0.00305455             -200               0             -200               0
0.0116                  -57.9852          175.58         -54.5521      0.00406895             -200               0             -200               0
0.012                   -58.0041         174.478         -54.5503      0.00508141             -200               0             -200               0
0.0124                  -58.0269         173.378         -54.5485      0.00609187             -200               0             -200               0
0.0128                  -58.0534         172.283         -54.5467      0.00710031             -200               0             -200               0
0.0132                  -58.0837         171.192         -54.5449       0.0081067             -200               0             -200               0
0.0136                  -58.1177         170.108         -54.5431      0.00911098             -200               0             -200               0
0.014                   -58.1553         169.031         -54.5412       0.0101131             -200               0             -200               0
0.0144                  -58.1964         167.962         -54.5394       0.0111131             -200               0             -200               0
0.0148                   -58.241         166.902         -54.5376       0.0121109             -200               0             -200               0
0.0152                   -58.289         165.852         -54.5357       0.0131065             -200               0             -200               0
0.0156                  -58.3403         164.812         -54.5338       0.0140997             -200               0             -200               0
0.016                   -58.3948         163.784         -54.5319       0.0150907             -200               0             -200               0
0.0164                  -58.4525         162.768           -54.53       0.0160793             -200               0             -200               0
0.0168                  -58.5131         161.764         -54.5281       0.0170655             -200               0             -200               0
0.0172                  -58.5766         160.774         -54.5262       0.0180494             -200               0             -200               0
0.0176                  -58.6429         159.798         -54.5243       0.0190307             -200               0             -200               0
0.018                   -58.7119         158.836         -54.5223       0.0200096             -200               0             -200               0
0.0184                  -58.7834         157.889         -54.5204        0.020986             -200               0             -200               0
0.0188                  -58.8573         156.958         -54.5184       0.0219597             -200               0             -200               0
0.0192                  -58.9336         156.042         -54.5165        0.022931             -200               0             -200               0
0.0196                   -59.012         155.142         -54.5145       0.0238995             -200               0             -200               0
0.02                    -59.0926         154.258         -54.5125       0.0248654             -200               0             -200               0
0.0204                  -59.1751         153.391         -54.5105       0.0258287             -200               0             -200               0
0.0208                  -59.2594          152.54         -54.5085       0.0267892             -200               0             -200               0
0.0212                  -59.3455         151.706         -54.5064       0.0277469             -200               0             -200               0
0.0216                  -59.4331         150.888         -54.5044       0.0287018             -200               0             -200               0
0.022                   -59.5223         150.088         -54.5023       0.0296539             -200               0             -200               0
0.0224                  -59.6129         149.304         -54.5003       0.0306031             -200               0             -200               0
0.0228                  -59.7048         148.537         -54.4982       0.0315494             -200               0             -200               0
0.0232                  -59.7978         147.787         -54.4961       0.0324928             -200               0             -200               0
0.0236                   -59.892         147.054          -54.494       0.0334332             -200               0             -200               0
0.024                   -59.9872         146.337         -54.4919       0.0343706             -200               0             -200               0
0.0244                  -60.0833         145.636         -54.4898        0.035305             -200               0             -200               0
0.0248                  -60.1802         144.952         -54.4877       0.0362363             -200               0             -200               0
0.0252                  -60.2779         144.284         -54.4855       0.0371645             -200               0             -200               0
0.0256                  -60.3762         143.632         -54.4834       0.0380896             -200               0             -200               0
0.026                   -60.4751         142.995         -54.4812       0.0390115             -200               0             -200               0
0.0264                  -60.5746         142.374          -54.479       0.0399301             -200               0             -200               0
0.0268                  -60.6744         141.769         -54.4768       0.0408456             -200               0             -200               0
0.0272                  -60.7747         141.178         -54.4746       0.0417578             -200               0             -200               0
0.0276                  -60.8753         140.602         -54.4724       0.0426667             -200               0             -200               0
0.028                   -60.9761         140.041         -54.4702       0.0435722             -200               0             -200               0
0.0284                  -61.0771         139.494          -54.468       0.0444744             -200               0             -200               0
0.0288                  -61.1783         138.961         -54.4657       0.0453732             -200               0             -200               0
0.0292                  -61.2796         138.442         -54.4635       0.0462685             -200               0             -200               0
0.0296                  -61.3809         137.937         -54.4612       0.0471604             -200               0             -200               0
0.03                    -61.4822         137.445          -54.459       0.0480488             -200               0             -200               0
0.0304                  -61.5835         136.965         -54.4567       0.0489336             -200               0             -200               0
0.0308                  -61.6848         136.499         -54.4544       0.0498149             -200               0             -200               0
0.0312                  -61.7859         136.045         -54.4521       0.0506927             -200               0             -200               0
0.0316                  -61.8868         135.603         -54.4497       0.0515667             -200               0             -200               0
0.032                   -61.9876         135.173         -54.4474       0.0524372             -200               0             -200               0
0.0324                  -62.0882         134.754         -54.4451       0.0533039             -200               0             -200               0
0.0328                  -62.1885         134.347         -54.4427        0.054167             -200               0             -200               0
0.0332                  -62.2886         133.951         -54.4403       0.0550262             -200               0             -200               0
0.0336                  -62.3884         133.566          -54.438       0.0558817             -200               0             -200               0
0.034                   -62.4879         133.192         -54.4356       0.0567334             -200               0             -200               0
0.0344                   -62.587         132.828         -54.4332       0.0575813             -200               0             -200               0
0.0348                  -62.6858         132.474         -54.4308       0.0584253             -200               0             -200               0
0.0352                  -62.7843          132.13         -54.4283       0.0592654             -200               0             -200               0
0.0356                  -62.8823         131.796         -54.4259       0.0601015             -200               0             -200               0
0.036                     -62.98         131.471         -54.4235       0.0609337             -200               0             -200               0
0.0364                  -63.0772         131.156          -54.421       0.0617619             -200               0             -200               0
0.0368                   -63.174         130.849         -54.4185       0.0625861             -200               0             -200               0
0.0372                  -63.2704         130.552          -54.416       0.0634062             -200               0             -200               0
0.0376                  -63.3663         130.263         -54.4136       0.0642222             -200               0             -200               0
0.038                   -63.4617         129.982          -54.411       0.0650342             -200               0             -200               0
0.0384                  -63.5567          129.71         -54.4085        0.065842             -200               0             -200               0
0.0388                  -63.6512         129.445          -54.406       0.0666456             -200               0             -200               0
0.0392                  -63.7453         129.188         -54.4035        0.067445             -200               0             -200               0
0.0396                  -63.8388         128.939         -54.4009       0.0682402             -200               0             -200               0
0.04                    -63.9319         128.698         -54.3984       0.0690312             -200               0             -200               0
0.0404                  -64.0244         128.463         -54.3958       0.0698178             -200               0             -200               0
0.0408                  -64.1164         128.236         -54.3932       0.0706002             -200               0             -200               0
0.0412                   -64.208         128.016         -54.3906       0.0713782             -200               0             -200               0
0.0416                   -64.299         127.802          -54.388       0.0721518             -200               0             -200               0
0.042                   -64.3895         127.595         -54.3854        0.072921             -200               0             -200               0
0.0424                  -64.4795         127.395         -54.3827       0.0736858             -200               0             -200               0
0.0428                   -64.569         127.201         -54.3801       0.0744462             -200               0             -200               0
0.0432                  -64.6579         127.013         -54.3774        0.075202             -200               0             -200               0
0.0436                  -64.7464         126.831         -54.3748       0.0759534             -200               0             -200               0
0.044                   -64.8343         126.654         -54.3721       0.0767002             -200               0             -200               0
0.0444                  -64.9217         126.484         -54.3694       0.0774425             -200               0             -200               0
0.0448                  -65.0085         126.319         -54.3667       0.0781802             -200               0             -200               0
0.0452                  -65.0949          126.16          -54.364       0.0789132             -200               0             -200               0
0.0456                  -65.1807         126.006         -54.3613       0.0796416             -200               0             -200               0
0.046                    -65.266         125.857         -54.3585       0.0803653             -200               0             -200               0
0.0464                  -65.3508         125.714         -54.3558       0.0810844             -200               0             -200               0
0.0468                  -65.4351         125.575          -54.353       0.0817987             -200               0             -200               0
0.0472                  -65.5188         125.441         -54.3503       0.0825082             -200               0             -200               0
0.0476                  -65.6021         125.313         -54.3475        0.083213             -200               0             -200               0
0.048                   -65.6848         125.188         -54.3447       0.0839129             -200               0             -200               0
0.0484                   -65.767         125.069         -54.3419       0.0846081             -200               0             -200               0
0.0488                  -65.8487         124.953         -54.3391       0.0852984             -200               0             -200               0
0.0492                  -65.9299         124.843         -54.3362       0.0859838             -200               0             -200               0
0.0496                  -66.0106         124.736         -54.3334       0.0866643             -200               0             -200               0
0.05                    -66.0908         124.634         -54.3305       0.0873398             -200               0             -200               0
0.0504                  -66.1705         124.536         -54.3277       0.0880104             -200               0             -200               0
0.0508                  -66.2497         124.441         -54.3248       0.0886761             -200               0             -200               0
0.0512                  -66.3284         124.351         -54.3219       0.0893367             -200               0             -200               0
0.0516                  -66.4066         124.265          -54.319       0.0899923             -200               0             -200               0
0.052                   -66.4843         124.182         -54.3161       0.0906428             -200               0             -200               0
0.0524                  -66.5615         124.103         -54.3132       0.0912882             -200               0             -200               0
0.0528                  -66.6383         124.028         -54.3103       0.0919286             -200               0             -200               0
0.0532                  -66.7146         123.956         -54.3073       0.0925638             -200               0             -200               0
0.0536                  -66.7904         123.888         -54.3043       0.0931939             -200               0             -200               0
0.054                   -66.8657         123.823         -54.3014       0.0938188             -200               0             -200               0
0.0544                  -66.9405         123.761         -54.2984       0.0944385             -200               0             -200               0
0.0548                  -67.0149         123.703         -54.2954       0.0950529             -200               0             -200               0
0.0552                  -67.0888         123.647         -54.2924       0.0956621             -200               0             -200               0
0.0556                  -67.1623         123.595         -54.2894       0.0962661             -200               0             -200               0
0.056                   -67.2353         123.546         -54.2863       0.0968648             -200               0             -200               0
0.0564                  -67.3079           123.5         -54.2833       0.0974581             -200               0             -200               0
0.0568                  -67.3799         123.457         -54.2803       0.0980461             -200               0             -200               0
0.0572                  -67.4516         123.417         -54.2772       0.0986288             -200               0             -200               0
0.0576                  -67.5228          123.38         -54.2741       0.0992061             -200               0             -200               0
0.058                   -67.5936         123.345          -54.271       0.0997779             -200               0             -200               0
0.0584                  -67.6639         123.314         -54.2679        0.100344             -200               0             -200               0
0.0588                  -67.7338         123.285         -54.2648        0.100905             -200               0             -200               0
0.0592                  -67.8032         123.258         -54.2617        0.101461             -200               0             -200               0
0.0596                  -67.8723         123.234         -54.2585        0.102011             -200               0             -200               0
0.06                    -67.9409         123.213         -54.2554        0.102555             -200               0             -200               0
0.0604                   -68.009         123.194         -54.2522        0.103094             -200               0             -200               0
0.0608                  -68.0768         123.177         -54.2491        0.103628             -200               0             -200               0
0.0612                  -68.1441         123.163         -54.2459        0.104156             -200               0             -200               0
0.0616                  -68.2111         123.152         -54.2427        0.104678             -200               0             -200               0
0.062                   -68.2776         123.142         -54.2395        0.105195             -200               0             -200               0
0.0624                  -68.3437         123.135         -54.2363        0.105706             -200               0             -200               0
0.0628                  -68.4094          123.13          -54.233        0.106211             -200               0             -200               0
0.0632                  -68.4747         123.128         -54.2298        0.106711             -200               0             -200               0
0.0636                  -68.5396         123.127         -54.2265        0.107205             -200               0             -200               0
0.064                   -68.6041         123.129         -54.2233        0.107693             -200               0             -200               0
0.0644                  -68.6682         123.132           -54.22        0.108176             -200               0             -200               0
0.0648                   -68.732         123.138         -54.2167        0.108652             -200               0             -200               0
0.0652                  -68.7953         123.145         -54.2134        0.109123             -200               0             -200               0
0.0656                  -68.8582         123.155         -54.2101        0.109589             -200               0             -200               0
0.066                   -68.9208         123.167         -54.2067        0.110048             -200               0             -200               0
0.0664                   -68.983          123.18         -54.2034        0.110502             -200               0             -200               0
0.0668                  -69.0448         123.195            -54.2        0.110949             -200               0             -200               0
0.0672                  -69.1063         123.212         -54.1967        0.111391             -200               0             -200               0
0.0676                  -69.1674         123.231         -54.1933        0.111827             -200               0             -200               0
0.068                   -69.2281         123.252         -54.1899        0.112258             -200               0             -200               0
0.0684                  -69.2884         123.274         -54.1865        0.112682             -200               0             -200               0
0.0688                  -69.3484         123.299         -54.1831          0.1131             -200               0             -200               0
0.0692                   -69.408         123.324         -54.1797        0.113512             -200               0             -200               0
0.0696                  -69.4673         123.352         -54.1762        0.113919             -200               0             -200               0
0.07                    -69.5262         123.381         -54.1728        0.114319             -200               0             -200               0
0.0704                  -69.5848         123.412         -54.1693        0.114713             -200               0             -200               0
0.0708                   -69.643         123.444         -54.1659        0.115102             -200               0             -200               0
0.0712                  -69.7009         123.478         -54.1624        0.115484             -200               0             -200               0
0.0716                  -69.7584         123.513         -54.1589         0.11586             -200               0             -200               0
0.072                   -69.8156          123.55         -54.1554        0.116231             -200               0             -200               0
0.0724                  -69.8724         123.589         -54.1518        0.116595             -200               0             -200               0
0.0728                  -69.9289         123.628         -54.1483        0.116953             -200               0             -200               0
0.0732                  -69.9851          123.67         -54.1448        0.117305             -200               0             -200               0
0.0736                  -70.0409         123.712         -54.1412         0.11765             -200               0             -200               0
0.074                   -70.0964         123.756         -54.1376         0.11799             -200               0             -200               0
0.0744                  -70.1516         123.802          -54.134        0.118324             -200               0             -200               0
0.0748                  -70.2065         123.849         -54.1305        0.118651             -200               0             -200               0
0.0752                   -70.261         123.897         -54.1268        0.118972             -200               0             -200               0
0.0756                  -70.3152         123.946         -54.1232        0.119287             -200               0             -200               0
0.076                   -70.3691         123.997         -54.1196        0.119596             -200               0             -200               0
0.0764                  -70.4226         124.049          -54.116        0.119898             -200               0             -200               0
0.0768                  -70.4759         124.102         -54.1123        0.120194             -200               0             -200               0
0.0772                  -70.5288         124.156         -54.1086        0.120484             -200               0             -200               0
0.0776                  -70.5815         124.212         -54.1049        0.120768             -200               0             -200               0
0.078                   -70.6338         124.269         -54.1013        0.121046             -200               0             -200               0
0.0784                  -70.6858         124.327         -54.0975        0.121317             -200               0             -200               0
0.0788                  -70.7375         124.386         -54.0938        0.121582             -200               0             -200               0
0.0792                  -70.7889         124.446         -54.0901         0.12184             -200               0             -200               0