! TOUCHSTONE file generated by CST MICROWAVE STUDIO
! Date and time: Wed May 26 13:59:33 2021
! Project name: waveguide_with_ports.cst
! Parameters = {ln=0.4; res=0.01}
! Header version: 2015
! Port assignment regex: !\s*Touchstone port\s*([0-9]+)\s*=\s*CST MWS port\s*([0-9]+)\s*\(\"(.*)\"\)(\s*mode\s*([0-9]+))?.*
! Touchstone port assignment:
! Touchstone port 1 = CST MWS port 1 ("")
! Touchstone port 2 = CST MWS port 2 ("")
! S-Parameters are not renormalized. Unphysical impedance of 0 will be written to the file.
# GHz S MA R 0
0.1                  7.69317e-05            -180       0.00197459    -3.89704e-11                0               0                0               0
0.10028                7.693e-05         179.999       0.00197525    -0.000757814                0               0                0               0
0.10056              7.69283e-05         179.998        0.0019759     -0.00151066                0               0                0               0
0.10084              7.69266e-05         179.997       0.00197655     -0.00225854                0               0                0               0
0.10112              7.69249e-05         179.996       0.00197721     -0.00300147                0               0                0               0
0.1014               7.69231e-05         179.995       0.00197787     -0.00373946                0               0                0               0
0.10168              7.69214e-05         179.994       0.00197853     -0.00447253                0               0                0               0
0.10196              7.69196e-05         179.994       0.00197919     -0.00520068                0               0                0               0
0.10224              7.69178e-05         179.993       0.00197985     -0.00592392                0               0                0               0
0.10252              7.69161e-05         179.992       0.00198052     -0.00664227                0               0                0               0
0.1028               7.69143e-05         179.991       0.00198119     -0.00735574                0               0                0               0
0.10308              7.69125e-05          179.99       0.00198186     -0.00806433                0               0                0               0
0.10336              7.69106e-05         179.989       0.00198253     -0.00876807                0               0                0               0
0.10364              7.69088e-05         179.988        0.0019832     -0.00946695                0               0                0               0
0.10392               7.6907e-05         179.987       0.00198388       -0.010161                0               0                0               0
0.1042               7.69051e-05         179.986       0.00198455      -0.0108502                0               0                0               0
0.10448              7.69033e-05         179.986       0.00198523      -0.0115346                0               0                0               0
0.10476              7.69014e-05         179.985       0.00198591      -0.0122142                0               0                0               0
0.10504              7.68995e-05         179.984       0.00198659       -0.012889                0               0                0               0
0.10532              7.68976e-05         179.983       0.00198728       -0.013559                0               0                0               0
0.1056               7.68957e-05         179.982       0.00198796      -0.0142243                0               0                0               0
0.10588              7.68938e-05         179.981       0.00198865      -0.0148848                0               0                0               0
0.10616              7.68918e-05          179.98       0.00198934      -0.0155405                0               0                0               0
0.10644              7.68899e-05          179.98       0.00199003      -0.0161916                0               0                0               0
0.10672              7.68879e-05         179.979       0.00199072      -0.0168378                0               0                0               0
0.107                 7.6886e-05         179.978       0.00199142      -0.0174794                0               0                0               0
0.10728               7.6884e-05         179.977       0.00199211      -0.0181163                0               0                0               0
0.10756               7.6882e-05         179.976       0.00199281      -0.0187485                0               0                0               0
0.10784                7.688e-05         179.975       0.00199351       -0.019376                0               0                0               0
0.10812               7.6878e-05         179.975       0.00199421      -0.0199988                0               0                0               0
0.1084               7.68759e-05         179.974       0.00199492       -0.020617                0               0                0               0
0.10868              7.68739e-05         179.973       0.00199562      -0.0212305                0               0                0               0
0.10896              7.68718e-05         179.972       0.00199633      -0.0218394                0               0                0               0
0.10924              7.68698e-05         179.971       0.00199704      -0.0224437                0               0                0               0
0.10952              7.68677e-05         179.971       0.00199775      -0.0230433                0               0                0               0
0.1098               7.68656e-05          179.97       0.00199846      -0.0236384                0               0                0               0
0.11008              7.68635e-05         179.969       0.00199918      -0.0242289                0               0                0               0
0.11036              7.68614e-05         179.968        0.0019999      -0.0248148                0               0                0               0
0.11064              7.68593e-05         179.967       0.00200062      -0.0253961                0               0                0               0
0.11092              7.68571e-05         179.967       0.00200134      -0.0259729                0               0                0               0
0.1112                7.6855e-05         179.966       0.00200206      -0.0265451                0               0                0               0
0.11148              7.68528e-05         179.965       0.00200278      -0.0271129                0               0                0               0
0.11176              7.68507e-05         179.964       0.00200351      -0.0276761                0               0                0               0
0.11204              7.68485e-05         179.964       0.00200424      -0.0282348                0               0                0               0
0.11232              7.68463e-05         179.963       0.00200497       -0.028789                0               0                0               0
0.1126               7.68441e-05         179.962        0.0020057      -0.0293387                0               0                0               0
0.11288              7.68418e-05         179.961       0.00200643      -0.0298839                0               0                0               0
0.11316              7.68396e-05         179.961       0.00200717      -0.0304247                0               0                0               0
0.11344              7.68374e-05          179.96       0.00200791      -0.0309611                0               0                0               0
0.11372              7.68351e-05         179.959       0.00200865       -0.031493                0               0                0               0
0.114                7.68328e-05         179.958       0.00200939      -0.0320205                0               0                0               0
0.11428              7.68306e-05         179.958       0.00201013      -0.0325436                0               0                0               0
0.11456              7.68283e-05         179.957       0.00201088      -0.0330622                0               0                0               0
0.11484               7.6826e-05         179.956       0.00201163      -0.0335765                0               0                0               0
0.11512              7.68236e-05         179.955       0.00201237      -0.0340865                0               0                0               0
0.1154               7.68213e-05         179.955       0.00201313       -0.034592                0               0                0               0
0.11568               7.6819e-05         179.954       0.00201388      -0.0350932                0               0                0               0
0.11596              7.68166e-05         179.953       0.00201463      -0.0355901                0               0                0               0
0.11624              7.68142e-05         179.953       0.00201539      -0.0360826                0               0                0               0
0.11652              7.68119e-05         179.952       0.00201615      -0.0365708                0               0                0               0
0.1168               7.68095e-05         179.951       0.00201691      -0.0370547                0               0                0               0
0.11708              7.68071e-05          179.95       0.00201767      -0.0375344                0               0                0               0
0.11736              7.68046e-05          179.95       0.00201844      -0.0380097                0               0                0               0
0.11764              7.68022e-05         179.949       0.00201921      -0.0384808                0               0                0               0
0.11792              7.67998e-05         179.948       0.00201998      -0.0389476                0               0                0               0
0.1182               7.67973e-05         179.948       0.00202075      -0.0394102                0               0                0               0
0.11848              7.67948e-05         179.947       0.00202152      -0.0398685                0               0                0               0
0.11876              7.67924e-05         179.946       0.00202229      -0.0403226                0               0                0               0
0.11904              7.67899e-05         179.946       0.00202307      -0.0407726                0               0                0               0
0.11932              7.67874e-05         179.945       0.00202385      -0.0412183                0               0                0               0
0.1196               7.67848e-05         179.944       0.00202463      -0.0416598                0               0                0               0
0.11988              7.67823e-05         179.944       0.00202541      -0.0420972                0               0                0               0
0.12016              7.67798e-05         179.943        0.0020262      -0.0425304                0               0                0               0
0.12044              7.67772e-05         179.943       0.00202698      -0.0429594                0               0                0               0
0.12072              7.67746e-05         179.942       0.00202777      -0.0433844                0               0                0               0
0.121                7.67721e-05         179.941       0.00202856      -0.0438052                0               0                0               0
0.12128              7.67695e-05         179.941       0.00202936      -0.0442219                0               0                0               0
0.12156              7.67669e-05          179.94       0.00203015      -0.0446344                0               0                0               0
0.12184              7.67642e-05         179.939       0.00203095      -0.0450429                0               0                0               0
0.12212              7.67616e-05         179.939       0.00203175      -0.0454474                0               0                0               0
0.1224                7.6759e-05         179.938       0.00203255      -0.0458477                0               0                0               0
0.12268              7.67563e-05         179.938       0.00203335      -0.0462441                0               0                0               0
0.12296              7.67536e-05         179.937       0.00203415      -0.0466363                0               0                0               0
0.12324               7.6751e-05         179.936       0.00203496      -0.0470246                0               0                0               0
0.12352              7.67483e-05         179.936       0.00203577      -0.0474088                0               0                0               0
0.1238               7.67455e-05         179.935       0.00203658      -0.0477891                0               0                0               0
0.12408              7.67428e-05         179.935       0.00203739      -0.0481653                0               0                0               0
0.12436              7.67401e-05         179.934       0.00203821      -0.0485376                0               0                0               0
0.12464              7.67373e-05         179.933       0.00203902      -0.0489059                0               0                0               0
0.12492              7.67346e-05         179.933       0.00203984      -0.0492703                0               0                0               0
0.1252               7.67318e-05         179.932       0.00204066      -0.0496307                0               0                0               0
0.12548               7.6729e-05         179.932       0.00204149      -0.0499872                0               0                0               0
0.12576              7.67262e-05         179.931       0.00204231      -0.0503398                0               0                0               0
0.12604              7.67234e-05         179.931       0.00204314      -0.0506885                0               0                0               0
0.12632              7.67206e-05          179.93       0.00204397      -0.0510333                0               0                0               0
0.1266               7.67177e-05         179.929        0.0020448      -0.0513742                0               0                0               0
0.12688              7.67149e-05         179.929       0.00204563      -0.0517112                0               0                0               0
0.12716               7.6712e-05         179.928       0.00204647      -0.0520444                0               0                0               0
0.12744              7.67091e-05         179.928       0.00204731      -0.0523738                0               0                0               0
0.12772              7.67062e-05         179.927       0.00204815      -0.0526993                0               0                0               0
0.128                7.67033e-05         179.927       0.00204899       -0.053021                0               0                0               0
0.12828              7.67004e-05         179.926       0.00204983      -0.0533389                0               0                0               0
0.12856              7.66975e-05         179.926       0.00205068       -0.053653                0               0                0               0
0.12884              7.66945e-05         179.925       0.00205153      -0.0539634                0               0                0               0
0.12912              7.66916e-05         179.925       0.00205238      -0.0542699                0               0                0               0
0.1294               7.66886e-05         179.924       0.00205323      -0.0545727                0               0                0               0
0.12968              7.66856e-05         179.924       0.00205408      -0.0548718                0               0                0               0
0.12996              7.66826e-05         179.923       0.00205494      -0.0551672                0               0                0               0
0.13024              7.66796e-05         179.923        0.0020558      -0.0554588                0               0                0               0
0.13052              7.66766e-05         179.922       0.00205666      -0.0557467                0               0                0               0
0.1308               7.66735e-05         179.922       0.00205752       -0.056031                0               0                0               0
0.13108              7.66705e-05         179.921       0.00205838      -0.0563115                0               0                0               0
0.13136              7.66674e-05         179.921       0.00205925      -0.0565884                0               0                0               0
0.13164              7.66643e-05          179.92       0.00206012      -0.0568617                0               0                0               0
0.13192              7.66613e-05          179.92       0.00206099      -0.0571313                0               0                0               0
0.1322               7.66581e-05         179.919       0.00206186      -0.0573972                0               0                0               0
0.13248               7.6655e-05         179.919       0.00206274      -0.0576596                0               0                0               0
0.13276              7.66519e-05         179.918       0.00206362      -0.0579184                0               0                0               0
0.13304              7.66488e-05         179.918        0.0020645      -0.0581735                0               0                0               0
0.13332              7.66456e-05         179.917       0.00206538      -0.0584251                0               0                0               0
0.1336               7.66424e-05         179.917       0.00206626      -0.0586731                0               0                0               0
0.13388              7.66392e-05         179.916       0.00206715      -0.0589176                0               0                0               0
0.13416               7.6636e-05         179.916       0.00206804      -0.0591585                0               0                0               0
0.13444              7.66328e-05         179.916       0.00206893      -0.0593959                0               0                0               0
0.13472              7.66296e-05         179.915       0.00206982      -0.0596298                0               0                0               0
0.135                7.66263e-05         179.915       0.00207072      -0.0598602                0               0                0               0
0.13528              7.66231e-05         179.914       0.00207161      -0.0600871                0               0                0               0
0.13556              7.66198e-05         179.914       0.00207251      -0.0603105                0               0                0               0
0.13584              7.66165e-05         179.913       0.00207341      -0.0605304                0               0                0               0
0.13612              7.66132e-05         179.913       0.00207432      -0.0607469                0               0                0               0
0.1364               7.66099e-05         179.913       0.00207522        -0.06096                0               0                0               0
0.13668              7.66066e-05         179.912       0.00207613      -0.0611696                0               0                0               0
0.13696              7.66033e-05         179.912       0.00207704      -0.0613759                0               0                0               0
0.13724              7.65999e-05         179.911       0.00207795      -0.0615787                0               0                0               0
0.13752              7.65966e-05         179.911       0.00207887      -0.0617781                0               0                0               0
0.1378               7.65932e-05         179.911       0.00207979      -0.0619742                0               0                0               0
0.13808              7.65898e-05          179.91        0.0020807      -0.0621668                0               0                0               0
0.13836              7.65864e-05          179.91       0.00208163      -0.0623562                0               0                0               0
0.13864               7.6583e-05         179.909       0.00208255      -0.0625422                0               0                0               0
0.13892              7.65795e-05         179.909       0.00208347      -0.0627249                0               0                0               0
0.1392               7.65761e-05         179.909        0.0020844      -0.0629042                0               0                0               0
0.13948              7.65726e-05         179.908       0.00208533      -0.0630803                0               0                0               0
0.13976              7.65691e-05         179.908       0.00208626      -0.0632531                0               0                0               0
0.14004              7.65656e-05         179.908        0.0020872      -0.0634226                0               0                0               0
0.14032              7.65621e-05         179.907       0.00208814      -0.0635888                0               0                0               0
0.1406               7.65586e-05         179.907       0.00208908      -0.0637518                0               0                0               0
0.14088              7.65551e-05         179.907       0.00209002      -0.0639116                0               0                0               0
0.14116              7.65515e-05         179.906       0.00209096      -0.0640681                0               0                0               0
0.14144               7.6548e-05         179.906       0.00209191      -0.0642214                0               0                0               0
0.14172              7.65444e-05         179.906       0.00209285      -0.0643715                0               0                0               0
0.142                7.65408e-05         179.905        0.0020938      -0.0645185                0               0                0               0
0.14228              7.65372e-05         179.905       0.00209476      -0.0646622                0               0                0               0
0.14256              7.65336e-05         179.905       0.00209571      -0.0648028                0               0                0               0
0.14284                7.653e-05         179.904       0.00209667      -0.0649403                0               0                0               0
0.14312              7.65263e-05         179.904       0.00209763      -0.0650746                0               0                0               0
0.1434               7.65227e-05         179.904       0.00209859      -0.0652058                0               0                0               0
0.14368               7.6519e-05         179.903       0.00209955      -0.0653339                0               0                0               0
0.14396              7.65153e-05         179.903       0.00210052      -0.0654589                0               0                0               0
0.14424              7.65116e-05         179.903       0.00210149      -0.0655808                0               0                0               0
0.14452              7.65079e-05         179.902       0.00210246      -0.0656997                0               0                0               0
0.1448               7.65042e-05         179.902       0.00210343      -0.0658155                0               0                0               0
0.14508              7.65004e-05         179.902       0.00210441      -0.0659282                0               0                0               0
0.14536              7.64967e-05         179.901       0.00210539      -0.0660379                0               0                0               0
0.14564              7.64929e-05         179.901       0.00210637      -0.0661446                0               0                0               0
0.14592              7.64891e-05         179.901       0.00210735      -0.0662483                0               0                0               0
0.1462               7.64853e-05         179.901       0.00210833       -0.066349                0               0                0               0
0.14648              7.64815e-05           179.9       0.00210932      -0.0664467                0               0                0               0
0.14676              7.64776e-05           179.9       0.00211031      -0.0665414                0               0                0               0
0.14704              7.64738e-05           179.9        0.0021113      -0.0666332                0               0                0               0
0.14732              7.64699e-05           179.9        0.0021123       -0.066722                0               0                0               0
0.1476               7.64661e-05         179.899       0.00211329      -0.0668079                0               0                0               0
0.14788              7.64622e-05         179.899       0.00211429      -0.0668909                0               0                0               0
0.14816              7.64583e-05         179.899       0.00211529       -0.066971                0               0                0               0
0.14844              7.64544e-05         179.899        0.0021163      -0.0670482                0               0                0               0
0.14872              7.64504e-05         179.898        0.0021173      -0.0671225                0               0                0               0
0.149                7.64465e-05         179.898       0.00211831       -0.067194                0               0                0               0
0.14928              7.64425e-05         179.898       0.00211932      -0.0672626                0               0                0               0
0.14956              7.64385e-05         179.898       0.00212033      -0.0673283                0               0                0               0
0.14984              7.64346e-05         179.897       0.00212135      -0.0673913                0               0                0               0
0.15012              7.64305e-05         179.897       0.00212237      -0.0674514                0               0                0               0
0.1504               7.64265e-05         179.897       0.00212339      -0.0675087                0               0                0               0
0.15068              7.64225e-05         179.897       0.00212441      -0.0675632                0               0                0               0
0.15096              7.64184e-05         179.896       0.00212544      -0.0676149                0               0                0               0
0.15124              7.64144e-05         179.896       0.00212646      -0.0676639                0               0                0               0
0.15152              7.64103e-05         179.896       0.00212749      -0.0677102                0               0                0               0
0.1518               7.64062e-05         179.896       0.00212852      -0.0677536                0               0                0               0
0.15208              7.64021e-05         179.896       0.00212956      -0.0677944                0               0                0               0
0.15236               7.6398e-05         179.895        0.0021306      -0.0678325                0               0                0               0
0.15264              7.63938e-05         179.895       0.00213164      -0.0678678                0               0                0               0
0.15292              7.63897e-05         179.895       0.00213268      -0.0679005                0               0                0               0
0.1532               7.63855e-05         179.895       0.00213372      -0.0679305                0               0                0               0
0.15348              7.63813e-05         179.895       0.00213477      -0.0679578                0               0                0               0
0.15376              7.63771e-05         179.894       0.00213582      -0.0679825                0               0                0               0
0.15404              7.63729e-05         179.894       0.00213687      -0.0680045                0               0                0               0
0.15432              7.63687e-05         179.894       0.00213792      -0.0680239                0               0                0               0
0.1546               7.63645e-05         179.894       0.00213898      -0.0680407                0               0                0               0
0.15488              7.63602e-05         179.894       0.00214004      -0.0680549                0               0                0               0
0.15516              7.63559e-05         179.894        0.0021411      -0.0680665                0               0                0               0
0.15544              7.63517e-05         179.894       0.00214216      -0.0680756                0               0                0               0