! TOUCHSTONE file generated by CST MICROWAVE STUDIO
! Date and time: Thu May 27 09:58:08 2021
! Project name: waveguide_with_ports.cst
! Parameters = {ln=0.4; res=0.01}
! Header version: 2015
! Port assignment regex: !\s*Touchstone port\s*([0-9]+)\s*=\s*CST MWS port\s*([0-9]+)\s*\(\"(.*)\"\)(\s*mode\s*([0-9]+))?.*
! Touchstone port assignment:
! Touchstone port 1 = CST MWS port 1 ("")
! Touchstone port 2 = CST MWS port 2 ("")
! S-Parameters are not renormalized. Unphysical impedance of 0 will be written to the file.
# GHz S MA R 0
0.1                  2.21489e-07        -70.5538       0.00586322         18.1237                0               0                0               0
0.1014               3.05703e-07         -63.924       0.00589266        -15.0486                0               0                0               0
0.1028               3.88105e-07        -73.7594       0.00494719        -49.5202                0               0                0               0
0.1042               4.25687e-07        -89.7393       0.00330079        -91.2931                0               0                0               0
0.1056               4.05556e-07        -107.882       0.00188904        -164.738                0               0                0               0
0.107                3.29115e-07        -126.071       0.00274994         106.994                0               0                0               0
0.1084               2.08432e-07        -140.857       0.00445577         59.9437                0               0                0               0
0.1098               7.61337e-08        -126.474       0.00561597         24.5278                0               0                0               0
0.1112               1.31016e-07         -48.683       0.00584881        -8.19457                0               0                0               0
0.1126               2.72614e-07        -55.6968       0.00509191        -41.4897                0               0                0               0
0.114                3.89443e-07        -73.3504       0.00354484        -79.9626                0               0                0               0
0.1154               4.63695e-07        -93.0308       0.00188846        -143.322                0               0                0               0
0.1168               4.88283e-07        -113.015       0.00228072         118.192                0               0                0               0
0.1182               4.64088e-07        -132.429       0.00401699         66.6256                0               0                0               0
0.1196               3.99265e-07        -150.274         0.005332          30.779                0               0                0               0
0.121                3.08548e-07        -164.643       0.00576499        -1.55867                0               0                0               0
0.1224               2.14253e-07        -170.922       0.00520512        -33.8491                0               0                0               0
0.1238               1.53098e-07        -160.586       0.00378915        -69.6945                0               0                0               0
0.1252               1.60705e-07        -143.704       0.00200997        -123.374                0               0                0               0
0.1266               2.03509e-07        -143.641       0.00183529         131.847                0               0                0               0
0.128                2.37618e-07         -155.14       0.00355812         73.3356                0               0                0               0
0.1294               2.48294e-07        -171.768        0.0050147         36.8638                0               0                0               0
0.1308               2.34111e-07         168.772       0.00564258         4.85708                0               0                0               0
0.1322                1.9927e-07         146.722       0.00528496         -26.564                0               0                0               0
0.1336               1.51012e-07         120.353       0.00402381        -60.3102                0               0                0               0
0.135                1.00732e-07         83.1067        0.0022218        -106.093                0               0                0               0
0.1364               7.55837e-08          20.672       0.00144227         149.815                0               0                0               0
0.1378                1.0526e-07        -40.7627       0.00308367         80.1269                0               0                0               0
0.1392               1.60273e-07        -78.7197        0.0046675         42.7645                0               0                0               0
0.1406               2.17125e-07        -107.832       0.00548326         11.0468                0               0                0               0
0.142                  2.676e-07        -134.546       0.00533027        -19.6089                0               0                0               0
0.1434               3.07628e-07        -161.078        0.0042414        -51.6614                0               0                0               0
0.1448               3.35321e-07         171.674       0.00248823        -91.5323                0               0                0               0
0.1462               3.50864e-07         143.365       0.00115592         174.711                0               0                0               0
0.1476               3.56112e-07         114.052       0.00259809         87.0969                0               0                0               0
0.149                3.53368e-07          84.198       0.00429391          48.457                0               0                0               0
0.1504               3.43679e-07         54.6749       0.00528898         17.0012                0               0                0               0
0.1518               3.25904e-07         26.6922       0.00534052         -12.965                0               0                0               0
0.1532               2.97861e-07         1.80392       0.00443646        -43.6296                0               0                0               0
0.1546               2.60155e-07        -17.7041        0.0027808        -79.2115                0               0                0               0
0.156                2.23161e-07        -28.2721        0.0010574        -153.664                0               0                0               0
0.1574               2.14089e-07        -28.4519       0.00210582         94.4336                0               0                0               0
0.1588               2.57001e-07        -28.3662       0.00389743         53.9058                0               0                0               0
0.1602               3.36622e-07        -37.2067       0.00506198         22.7046                0               0                0               0
0.1616               4.21517e-07         -52.997       0.00531574        -6.62081                0               0                0               0
0.163                4.86554e-07        -72.3903       0.00460511        -36.1246                0               0                0               0
0.1644                5.1345e-07        -93.4915       0.00307992        -68.5935                0               0                0               0
0.1658               4.90162e-07         -115.23       0.00118049        -123.411                0               0                0               0
0.1672               4.11613e-07        -136.686       0.00161155         102.561                0               0                0               0
0.1686               2.80824e-07        -155.946       0.00348154         59.0568                0               0                0               0
0.17                 1.14515e-07        -159.974       0.00480464          28.135                0               0                0               0
0.1714               1.23761e-07        -64.7388       0.00525638       -0.570609                0               0                0               0
0.1728               3.26541e-07        -69.7337       0.00474459        -29.0784                0               0                0               0
0.1742               5.22811e-07        -89.2009       0.00337255        -59.2497                0               0                0               0
0.1756               6.84661e-07        -110.941       0.00145543        -100.833                0               0                0               0
0.177                7.93966e-07        -133.253       0.00112156         112.627                0               0                0               0
0.1784               8.39515e-07        -155.549       0.00304978         63.8258                0               0                0               0
0.1798               8.18095e-07        -177.435       0.00451959         33.2604                0               0                0               0
0.1812               7.34952e-07         161.566       0.00516331         5.18474                0               0                0               0
0.1826               6.03451e-07           142.3       0.00485308        -22.4411                0               0                0               0
0.184                4.44599e-07         126.703       0.00365007        -50.8715                0               0                0               0
0.1854               2.89582e-07         120.125       0.00179973        -84.7364                0               0                0               0
0.1868               1.95108e-07         134.345      0.000650182         129.035                0               0                0               0
0.1882                 2.172e-07         154.732       0.00260583         68.0661                0               0                0               0
0.1896               2.84986e-07         153.672       0.00420964         38.0355                0               0                0               0
0.191                3.31629e-07          141.61       0.00503777         10.6383                0               0                0               0
0.1924                 3.405e-07         125.885       0.00492954        -16.1767                0               0                0               0
0.1938               3.13323e-07         109.321        0.0039067        -43.2446                0               0                0               0
0.1952               2.59506e-07          93.407       0.00216707         -72.583                0               0                0               0
0.1966                1.9145e-07         79.3938        0.0002911        -179.851                0               0                0               0
0.198                1.20759e-07         69.0056       0.00215375         71.5079                0               0                0               0
0.1994               5.53227e-08         68.1427        0.0038779         42.3927                0               0                0               0
0.2008               2.16234e-08         158.281       0.00488132         15.7742                0               0                0               0
0.2022               7.67832e-08        -166.658       0.00497349        -10.2616                0               0                0               0
0.2036               1.44359e-07        -172.298       0.00413857        -36.2209                0               0                0               0
0.205                2.16753e-07         175.639       0.00253498        -62.7677                0               0                0               0
0.2064               2.86393e-07         160.222      0.000475296        -100.363                0               0                0               0
0.2078               3.42451e-07           142.7        0.0016987         73.5932                0               0                0               0
0.2092               3.73908e-07         123.973       0.00352779         46.2331                0               0                0               0
0.2106               3.72539e-07         104.902       0.00469586         20.5687                0               0                0               0
0.212                 3.3538e-07         86.6694       0.00498498        -4.68162                0               0                0               0
0.2134               2.67173e-07         71.7174       0.00434302        -29.6987                0               0                0               0
0.2148               1.86268e-07         66.9015        0.0028919        -54.4163                0               0                0               0
0.2162               1.46065e-07         85.0667      0.000904792        -77.4731                0               0                0               0
0.2176               2.00075e-07         99.8213        0.0012492         72.9799                0               0                0               0
0.219                2.90026e-07         90.9508       0.00316341         49.4069                0               0                0               0
0.2204               3.66392e-07         71.4699       0.00448362         24.9857                0               0                0               0
0.2218               4.09828e-07         46.9568       0.00496453        0.568117                0               0                0               0
0.2232               4.13752e-07         18.7583       0.00451839        -23.6077                0               0                0               0
0.2246               3.81459e-07        -13.5905       0.00323135        -47.0472                0               0                0               0
0.226                3.27498e-07        -52.0879       0.00135183         -66.373                0               0                0               0
0.2274               2.81022e-07        -99.5965      0.000826249         65.7012                0               0                0               0
0.2288               2.78884e-07        -153.721        0.0027898         51.6778                0               0                0               0
0.2302                3.2664e-07         156.354       0.00424725         28.9727                0               0                0               0
0.2316               3.91637e-07         114.611       0.00491302         5.48367                0               0                0               0
0.233                4.43275e-07         78.1955       0.00466367        -17.9012                0               0                0               0
0.2344               4.64877e-07         44.4374       0.00354936        -40.3839                0               0                0               0
0.2358               4.50273e-07         11.7552       0.00179176        -58.4342                0               0                0               0
0.2372               4.00878e-07        -20.9049      0.000511779         38.6607                0               0                0               0
0.2386                3.2371e-07        -54.5957       0.00241389         52.6646                0               0                0               0
0.24                 2.29787e-07        -91.1862       0.00398985         32.4576                0               0                0               0
0.2414               1.34138e-07        -136.559       0.00483172         10.0521                0               0                0               0
0.2428               7.07321e-08          143.54       0.00477837        -12.5485                0               0                0               0
0.2442                1.0221e-07         51.4124       0.00384333         -34.261                0               0                0               0
0.2456               1.63456e-07       -0.585834       0.00221827        -51.8174                0               0                0               0
0.247                2.15145e-07        -42.3068      0.000547022        -9.73137                0               0                0               0
0.2484               2.53399e-07        -81.5147        0.0020462         51.7353                0               0                0               0
0.2498               2.79607e-07        -119.821       0.00371526         35.3383                0               0                0               0
0.2512               2.95105e-07        -157.406       0.00472229          14.251                0               0                0               0
0.2526               2.99572e-07         165.918       0.00486246        -7.53238                0               0                0               0
0.254                2.91271e-07         130.314       0.00411153        -28.5748                0               0                0               0
0.2554               2.68379e-07         95.7955       0.00262833        -45.9165                0               0                0               0
0.2568               2.30425e-07         62.2251       0.00088743        -32.1418                0               0                0               0
0.2582               1.79138e-07         29.3558       0.00170441         47.8494                0               0                0               0
0.2596               1.18517e-07        -3.23675       0.00342829          37.473                0               0                0               0
0.261                5.42483e-08        -37.0011       0.00458683         18.0471                0               0                0               0
0.2624               8.62048e-09         143.276       0.00491634        -2.84545                0               0                0               0
0.2638               6.11604e-08         88.5928       0.00435284        -23.2617                0               0                0               0
0.2652               1.01737e-07         56.0791       0.00301997        -40.4797                0               0                0               0
0.2666               1.27304e-07         24.6298       0.00130858         -38.233                0               0                0               0
0.268                1.37714e-07         -6.3366       0.00141998         39.5004                0               0                0               0
0.2694               1.34671e-07        -36.5298       0.00313528         38.6642                0               0                0               0
0.2708               1.21148e-07        -64.9457       0.00442799          21.394                0               0                0               0
0.2722               1.01162e-07        -89.2695       0.00494076          1.5097                0               0                0               0
0.2736               8.12111e-08        -104.772        0.0045666        -18.2801                0               0                0               0
0.275                7.40548e-08        -107.452       0.00339173        -35.3851                0               0                0               0
0.2764                9.1682e-08        -109.675       0.00174726        -38.9388                0               0                0               0
0.2778               1.27223e-07        -123.388        0.0012448         25.5959                0               0                0               0
0.2792                1.6796e-07        -144.659       0.00284483         38.6425                0               0                0               0
0.2806               2.04619e-07        -169.169         0.004249         24.2292                0               0                0               0
0.282                2.29965e-07         165.116       0.00493687         5.52257                0               0                0               0
0.2834               2.38339e-07         139.137        0.0047525        -13.6076                0               0                0               0
0.2848               2.26232e-07         113.443       0.00374246        -30.5692                0               0                0               0
0.2862               1.92954e-07         88.5777       0.00218694        -37.5091                0               0                0               0
0.2876               1.41094e-07         65.6838       0.00123556         8.32306                0               0                0               0
0.289                7.71306e-08         49.6503       0.00256909         37.0599                0               0                0               0
0.2904                2.7543e-08         94.3269       0.00405401         26.4713                0               0                0               0
0.2918               7.55836e-08         137.134       0.00490625         9.17372                0               0                0               0
0.2932               1.32122e-07         122.237       0.00491058        -9.23151                0               0                0               0
0.2946               1.72258e-07         101.767       0.00407128        -25.9979                0               0                0               0
0.296                1.90844e-07         80.7985       0.00262118        -35.0896                0               0                0               0
0.2974               1.87556e-07         61.1241       0.00140117        -6.68237                0               0                0               0
0.2988               1.66919e-07         44.5773       0.00232521         33.5231                0               0                0               0
0.3002               1.39019e-07         33.9034       0.00384824          28.017                0               0                0               0
0.3016               1.19417e-07         31.1871       0.00485093         12.4352                0               0                0               0
0.303                1.20167e-07          30.644       0.00504121        -5.14892                0               0                0               0
0.3044               1.34077e-07         22.2001       0.00437754        -21.6528                0               0                0               0
0.3058                 1.448e-07         4.34283        0.0030466        -32.1729                0               0                0               0
0.3072               1.42909e-07        -21.2714       0.00169384        -16.4138                0               0                0               0
0.3086               1.28636e-07        -55.2059       0.00213649         27.7407                0               0                0               0
0.31                 1.13267e-07        -100.479       0.00363849         28.7398                0               0                0               0
0.3114               1.17599e-07        -154.605       0.00477358         15.2697                0               0                0               0
0.3128               1.48326e-07         156.668       0.00514509        -1.36488                0               0                0               0
0.3142               1.88628e-07         117.799       0.00466081        -17.5265                0               0                0               0
0.3156               2.21317e-07         84.8482       0.00346102        -29.0045                0               0                0               0
0.317                2.35793e-07         54.8288       0.00206104        -21.6393                0               0                0               0
0.3184               2.26876e-07           26.13       0.00203056         19.8531                0               0                0               0
0.3198               1.94092e-07        -2.40948       0.00343361         28.4941                0               0                0               0
0.3212               1.41342e-07        -32.5865       0.00467753         17.6307                0               0                0               0
0.3226               7.75814e-08        -71.3146       0.00522333         2.10901                0               0                0               0
0.324                3.82287e-08        -166.126        0.0049209        -13.6186                0               0                0               0
0.3254               8.57224e-08         115.727        0.0038629        -25.7234                0               0                0               0
0.3268               1.41298e-07         82.1737       0.00246948        -23.9102                0               0                0               0
0.3282               1.81974e-07         56.6592       0.00203176         10.7673                0               0                0               0
0.3296               2.03384e-07         34.5857       0.00324498         27.1322                0               0                0               0
0.331                 2.0599e-07         15.2356       0.00456704          19.461                0               0                0               0
0.3324               1.93786e-07        -1.17582       0.00527744          5.2557                0               0                0               0
0.3338               1.73158e-07        -14.1213        0.0051579        -9.93267                0               0                0               0
0.3352               1.51044e-07        -23.2757       0.00425108        -22.4139                0               0                0               0
0.3366               1.32292e-07        -29.1464       0.00290075        -24.3576                0               0                0               0
0.338                1.17648e-07        -32.9555       0.00214976         1.97153                0               0                0               0
0.3394               1.05181e-07        -35.1025       0.00308699         24.5435                0               0                0               0
0.3408               9.49257e-08        -34.1662        0.0044475         20.6948                0               0                0               0
0.3422               9.20042e-08        -29.4097       0.00530947         8.05138                0               0                0               0
0.3436               1.01918e-07        -25.7199       0.00537214        -6.47758                0               0                0               0
0.345                1.21372e-07        -29.1088       0.00462473        -19.1328                0               0                0               0
0.3464               1.40764e-07        -39.7062       0.00334454        -23.6779                0               0                0               0
0.3478               1.51299e-07        -55.1826       0.00237534        -5.27634                0               0                0               0
0.3492               1.47288e-07        -73.6587       0.00297661         20.7252                0               0                0               0
0.3506               1.26435e-07        -93.8664       0.00432572         21.2617                0               0                0               0
0.352                8.97777e-08        -114.532       0.00532208         10.4678                0               0                0               0
0.3534               4.15414e-08        -131.107       0.00556433        -3.26509                0               0                0               0
0.3548               1.72225e-08        -22.2956       0.00498327        -15.9214                0               0                0               0
0.3562               6.89031e-08        -22.7555       0.00379471        -22.2935                0               0                0               0
0.3576               1.14705e-07        -46.6238       0.00268814        -10.4953                0               0                0               0
0.359                1.47617e-07        -74.0412       0.00293184          15.866                0               0                0               0
0.3604               1.64889e-07        -104.078       0.00421018         21.0934                0               0                0               0
0.3618               1.67398e-07        -137.226       0.00531869          12.471                0               0                0               0
0.3632               1.60143e-07        -174.497       0.00573554       -0.310956                0               0                0               0
0.3646               1.51886e-07         143.464       0.00532644        -12.8114                0               0                0               0
0.366                 1.5176e-07         98.3028       0.00424741        -20.4667                0               0                0               0
0.3674               1.62346e-07         54.1783       0.00306692        -13.8234                0               0                0               0
0.3688               1.77599e-07         13.8612       0.00296838         10.3887                0               0                0               0
0.3702               1.89041e-07         -22.833       0.00411132         20.1379                0               0                0               0
0.3716               1.90897e-07          -57.22       0.00530368         14.0239                0               0                0               0
0.373                1.81293e-07        -90.5951       0.00588735         2.36692                0               0                0               0
0.3744               1.61864e-07        -124.082       0.00565426        -9.83038                0               0                0               0
0.3758               1.36891e-07        -158.713       0.00470012        -18.3687                0               0                0               0
0.3772               1.12034e-07          164.78       0.00349466        -15.6381                0               0                0               0